                         Program Version 6.0.1  -  RELEASE   -
|  1> ! B3LYP def2-TZVPP
|  2>
|  3> %MaxCore 10000
|  4>
|  5> %elprop
|  6> Polar 1
|  7> end
|  8>
|  9> * xyz 0 1
| 10>   Cl  2.53472848782682     -0.16102191079696     -1.47533772496125
| 11>   Cl  2.53474299300801     -0.16316662563317      1.47517546572605
| 12>   C   0.24840819569841      0.20233613374586      0.00018661211263
| 13>   C   -0.64068102335793      1.27428478025160      0.00081903411514
| 14>   C   -0.24820006145181     -1.10182312870802     -0.00064775915707
| 15>   C   1.71950353838917      0.48474796831750      0.00039650463350
| 16>   C   -2.01409910612749      1.04896380692966      0.00061990571895
| 17>   C   -1.61628180274550     -1.32486894586471     -0.00084207221412
| 18>   C   -2.50346093349892     -0.25026279308798     -0.00021131814678
| 19>   H   -0.26185913521701      2.28891120618995      0.00146679383123
| 20>   H   0.43892671792030     -1.93733470382279     -0.00114439389832
| 21>   H   1.92010313574198      1.54853896438079      0.00116469460244
| 22>   H   -2.69583866771020      1.88917513731446      0.00111323139944
| 23>   H   -1.99452267977882     -2.33873833253597     -0.00149158926928
| 24>   H   -3.57097965869701     -0.42903155668024     -0.00036738449256
| 25> *
| 26>
| 27>
| 28>                          ****END OF INPUT****

CARTESIAN COORDINATES (ANGSTROEM)
---------------------------------
  Cl     2.534728   -0.161022   -1.475338
  Cl     2.534743   -0.163167    1.475175
  C      0.248408    0.202336    0.000187
  C     -0.640681    1.274285    0.000819
  C     -0.248200   -1.101823   -0.000648
  C      1.719504    0.484748    0.000397
  C     -2.014099    1.048964    0.000620
  C     -1.616282   -1.324869   -0.000842
  C     -2.503461   -0.250263   -0.000211
  H     -0.261859    2.288911    0.001467
  H      0.438927   -1.937335   -0.001144
  H      1.920103    1.548539    0.001165
  H     -2.695839    1.889175    0.001113
  H     -1.994523   -2.338738   -0.001492
  H     -3.570980   -0.429032   -0.000367

 Total Charge           Charge          ....    0
 Multiplicity           Mult            ....    1
 Number of Electrons    NEL             ....   82
 Basis Dimension        Dim             ....  385

ORBITAL ENERGIES
----------------

  NO   OCC          E(Eh)            E(eV)
   0   2.0000    -101.523343     -2762.5906
   1   2.0000    -101.523338     -2762.5905
   2   2.0000     -10.299183      -280.2550
   3   2.0000     -10.204526      -277.6793
   4   2.0000     -10.192205      -277.3440
   5   2.0000     -10.188220      -277.2356
   6   2.0000     -10.188018      -277.2301
   7   2.0000     -10.187634      -277.2196
   8   2.0000     -10.186815      -277.1973
   9   2.0000      -9.455797      -257.3053
  10   2.0000      -9.455788      -257.3051
  11   2.0000      -7.217495      -196.3980
  12   2.0000      -7.217488      -196.3978
  13   2.0000      -7.208682      -196.1582
  14   2.0000      -7.208679      -196.1581
  15   2.0000      -7.208401      -196.1506
  16   2.0000      -7.208399      -196.1505
  17   2.0000      -0.909046       -24.7364
  18   2.0000      -0.865728       -23.5577
  19   2.0000      -0.818073       -22.2609
  20   2.0000      -0.772424       -21.0187
  21   2.0000      -0.762709       -20.7544
  22   2.0000      -0.671548       -18.2738
  23   2.0000      -0.624784       -17.0012
  24   2.0000      -0.595952       -16.2167
  25   2.0000      -0.534509       -14.5447
  26   2.0000      -0.494490       -13.4558
  27   2.0000      -0.476352       -12.9622
  28   2.0000      -0.450520       -12.2593
  29   2.0000      -0.446195       -12.1416
  30   2.0000      -0.440550       -11.9880
  31   2.0000      -0.433005       -11.7827
  32   2.0000      -0.382111       -10.3978
  33   2.0000      -0.374031       -10.1779
  34   2.0000      -0.361157        -9.8276
  35   2.0000      -0.325951        -8.8696
  36   2.0000      -0.324984        -8.8433
  37   2.0000      -0.306125        -8.3301
  38   2.0000      -0.304389        -8.2829
  39   2.0000      -0.271600        -7.3906
  40   2.0000      -0.264512        -7.1977
  41   0.0000      -0.044146        -1.2013
  42   0.0000      -0.025392        -0.6909
  43   0.0000      -0.010550        -0.2871
  44   0.0000       0.038504         1.0478
  45   0.0000       0.044355         1.2070

MULLIKEN ATOMIC CHARGES
-----------------------
   0 Cl:   -0.125470
   1 Cl:   -0.125472
   2 C :    0.046129
   3 C :   -0.126022
   4 C :   -0.162907
   5 C :    0.043795
   6 C :   -0.129191
   7 C :   -0.115802
   8 C :   -0.134937
   9 H :    0.125548
  10 H :    0.133100
  11 H :    0.152471
  12 H :    0.138544
  13 H :    0.140561
  14 H :    0.139653
Sum of atomic charges:   -0.0000000

LOEWDIN ATOMIC CHARGES
----------------------
   0 Cl:    0.313234
   1 Cl:    0.313244
   2 C :   -0.143691
   3 C :    0.004972
   4 C :    0.005355
   5 C :   -0.569140
   6 C :   -0.007332
   7 C :   -0.004779
   8 C :   -0.004027
   9 H :    0.019669
  10 H :    0.022816
  11 H :   -0.007905
  12 H :    0.018905
  13 H :    0.019822
  14 H :    0.018858

  Mayer bond orders larger than 0.100000
B(  0-Cl,  5-C ) :   1.0864 B(  1-Cl,  5-C ) :   1.0864 B(  2-C ,  3-C ) :   1.3558
B(  2-C ,  4-C ) :   1.3526 B(  2-C ,  5-C ) :   0.9842 B(  3-C ,  6-C ) :   1.4385
B(  3-C ,  9-H ) :   0.9517 B(  4-C ,  7-C ) :   1.4694 B(  4-C , 10-H ) :   0.9428
B(  5-C , 11-H ) :   0.9860 B(  6-C ,  8-C ) :   1.4475 B(  6-C , 12-H ) :   0.9564
B(  7-C ,  8-C ) :   1.4093 B(  7-C , 13-H ) :   0.9548 B(  8-C , 14-H ) :   0.9534

FINAL SINGLE POINT ENERGY     -1190.605945518381

DIPOLE MOMENT
-------------

Method             : SCF
Type of density    : Electron Density
Multiplicity       :   1
Irrep              :   0
Energy             : -1190.6059455183813043 Eh
Relativity type    :
Basis              : AO
                                X                 Y                 Z
Electronic contribution:     13.777068643      -1.185767527      -0.000698339
Nuclear contribution   :    -14.650064953       1.511615700       0.000934350
                        -----------------------------------------
Total Dipole Moment    :     -0.872996310       0.325848173       0.000236011
                        -----------------------------------------
Magnitude (a.u.)       :      0.931825974
Magnitude (Debye)      :      2.368513397

Rotational constants in cm-1:             0.067714             0.024191             0.022283
Rotational constants in MHz :          2030.014517           725.234984           668.020482

                             ****ORCA TERMINATED NORMALLY****
TOTAL RUN TIME: 0 days 0 hours 1 minutes 34 seconds 356 msec
