                         Program Version 4.0.1.2 - RELEASE -
|  1> ! B3LYP TIGHTSCF TIGHTOPT OPT def2-TZVPP
|  2>
|  3> %MaxCore 100000
|  4>
|  5> * xyz 0 1
|  6>   Cl        2.50507       -0.20926       -1.45509
|  7>   Cl        2.50501       -0.21118        1.45498
|  8>    C        0.26361        0.22529        0.00018
|  9>    C       -0.64611        1.29739        0.00084
| 10>    C       -0.23132       -1.09202       -0.00068
| 11>    C        1.74751        0.48792        0.00039
| 12>    C       -2.02345        1.05502        0.00065
| 13>    C       -1.60927       -1.32919       -0.00087
| 14>    C       -2.50457       -0.25670       -0.00020
| 15>    H       -0.29197        2.32075        0.00151
| 16>    H        0.44988       -1.93393       -0.00120
| 17>    H        1.95819        1.57860        0.00111
| 18>    H       -2.71820        1.88499        0.00116
| 19>    H       -1.98295       -2.34499       -0.00153
| 20>    H       -3.57094       -0.44198       -0.00035
| 21> *
| 22>
| 23>
| 24>
| 25>
| 26>                          ****END OF INPUT****
 Total Charge           Charge          ....    0
 Multiplicity           Mult            ....    1
 Number of Electrons    NEL             ....   82
FINAL SINGLE POINT ENERGY     -1190.603542545642
FINAL SINGLE POINT ENERGY     -1190.605319033375
FINAL SINGLE POINT ENERGY     -1190.605480960321
FINAL SINGLE POINT ENERGY     -1190.605511687718
FINAL SINGLE POINT ENERGY     -1190.605518739435
FINAL SINGLE POINT ENERGY     -1190.605519338652
FINAL SINGLE POINT ENERGY     -1190.605519399165
                    ***********************HURRAY********************

CARTESIAN COORDINATES (ANGSTROEM)
---------------------------------
  Cl     2.534728   -0.161022   -1.475338
  Cl     2.534743   -0.163167    1.475175
  C      0.248408    0.202336    0.000187
  C     -0.640681    1.274285    0.000819
  C     -0.248200   -1.101823   -0.000648
  C      1.719504    0.484748    0.000397
  C     -2.014099    1.048964    0.000620
  C     -1.616282   -1.324869   -0.000842
  C     -2.503461   -0.250263   -0.000211
  H     -0.261859    2.288911    0.001467
  H      0.438927   -1.937335   -0.001144
  H      1.920103    1.548539    0.001165
  H     -2.695839    1.889175    0.001113
  H     -1.994523   -2.338738   -0.001492
  H     -3.570980   -0.429032   -0.000367

 Multiplicity           Mult            ....    1
 Number of Electrons    NEL             ....   82
 Basis Dimension        Dim             ....  385

ORBITAL ENERGIES
----------------

  NO   OCC          E(Eh)            E(eV)
   0   2.0000    -101.524027     -2762.6092
   1   2.0000    -101.524023     -2762.6091
   2   2.0000     -10.298224      -280.2289
   3   2.0000     -10.204153      -277.6691
   4   2.0000     -10.192529      -277.3528
   5   2.0000     -10.188557      -277.2447
   6   2.0000     -10.188447      -277.2417
   7   2.0000     -10.187982      -277.2291
   8   2.0000     -10.187300      -277.2105
   9   2.0000      -9.456219      -257.3168
  10   2.0000      -9.456211      -257.3166
  11   2.0000      -7.218026      -196.4125
  12   2.0000      -7.218019      -196.4123
  13   2.0000      -7.209029      -196.1677
  14   2.0000      -7.209026      -196.1676
  15   2.0000      -7.208766      -196.1605
  16   2.0000      -7.208765      -196.1605
  17   2.0000      -0.908979       -24.7346
  18   2.0000      -0.865907       -23.5625
  19   2.0000      -0.818225       -22.2650
  20   2.0000      -0.772550       -21.0222
  21   2.0000      -0.762970       -20.7615
  22   2.0000      -0.671571       -18.2744
  23   2.0000      -0.624956       -17.0059
  24   2.0000      -0.596044       -16.2192
  25   2.0000      -0.534594       -14.5470
  26   2.0000      -0.494558       -13.4576
  27   2.0000      -0.476498       -12.9662
  28   2.0000      -0.450536       -12.2597
  29   2.0000      -0.446327       -12.1452
  30   2.0000      -0.440711       -11.9924
  31   2.0000      -0.433190       -11.7877
  32   2.0000      -0.382298       -10.4028
  33   2.0000      -0.374263       -10.1842
  34   2.0000      -0.361424        -9.8348
  35   2.0000      -0.326159        -8.8752
  36   2.0000      -0.325133        -8.8473
  37   2.0000      -0.306171        -8.3313
  38   2.0000      -0.304592        -8.2884
  39   2.0000      -0.271811        -7.3964
  40   2.0000      -0.264592        -7.1999
  41   0.0000      -0.044371        -1.2074
  42   0.0000      -0.025782        -0.7016
  43   0.0000      -0.010580        -0.2879
  44   0.0000       0.038523         1.0483
  45   0.0000       0.044360         1.2071

MULLIKEN ATOMIC CHARGES
-----------------------
   0 Cl:   -0.123385
   1 Cl:   -0.123359
   2 C :    0.076895
   3 C :   -0.132866
   4 C :   -0.189299
   5 C :    0.034810
   6 C :   -0.124736
   7 C :   -0.094369
   8 C :   -0.162418
   9 H :    0.131620
  10 H :    0.128354
  11 H :    0.158584
  12 H :    0.133382
  13 H :    0.133106
  14 H :    0.153679
Sum of atomic charges:   -0.0000000

LOEWDIN ATOMIC CHARGES
----------------------
   0 Cl:    0.313336
   1 Cl:    0.313346
   2 C :   -0.142537
   3 C :    0.004039
   4 C :    0.004744
   5 C :   -0.569681
   6 C :   -0.007376
   7 C :   -0.004905
   8 C :   -0.005404
   9 H :    0.019991
  10 H :    0.023064
  11 H :   -0.007626
  12 H :    0.019305
  13 H :    0.019995
  14 H :    0.019710

  Mayer bond orders larger than 0.1
B(  0-Cl,  5-C ) :   1.0969 B(  1-Cl,  5-C ) :   1.0970 B(  2-C ,  3-C ) :   1.3501
B(  2-C ,  4-C ) :   1.3282 B(  2-C ,  5-C ) :   1.0015 B(  3-C ,  6-C ) :   1.4176
B(  3-C ,  9-H ) :   0.9553 B(  4-C ,  7-C ) :   1.4591 B(  4-C , 10-H ) :   0.9670
B(  5-C , 11-H ) :   0.9699 B(  6-C ,  8-C ) :   1.4164 B(  6-C , 12-H ) :   0.9784
B(  7-C ,  8-C ) :   1.3777 B(  7-C , 13-H ) :   0.9653 B(  8-C , 14-H ) :   0.9693

FINAL SINGLE POINT ENERGY     -1190.605519397091

DIPOLE MOMENT
-------------
                                X             Y             Z
Electronic contribution:     13.77815      -1.18675      -0.00070
Nuclear contribution   :    -14.65006       1.51162       0.00093
                        -----------------------------------------
Total Dipole Moment    :     -0.87192       0.32486       0.00023
                        -----------------------------------------
Magnitude (a.u.)       :      0.93047
Magnitude (Debye)      :      2.36506

                             ****ORCA TERMINATED NORMALLY****
TOTAL RUN TIME: 0 days 1 hours 42 minutes 58 seconds 245 msec
