                         Program Version 6.0.1  -  RELEASE   -
|  1> ! RKS NORI TPSS DKH2 DKH-def2-TZVP Decontract VERYTIGHTSCF SlowConv
|  2>
|  3> %basis newgto Cl "old-DKH-TZVP" end
|  4> end
|  5>
|  6> %method
|  7>   SpecialGridAtoms 17
|  8>   SpecialGridIntAcc 7
|  9> end
| 10>
| 11> * xyz 0 1
| 12>   Cl  2.53472848782682     -0.16102191079696     -1.47533772496125
| 13>   Cl  2.53474299300801     -0.16316662563317      1.47517546572605
| 14>   C   0.24840819569841      0.20233613374586      0.00018661211263
| 15>   C   -0.64068102335793      1.27428478025160      0.00081903411514
| 16>   C   -0.24820006145181     -1.10182312870802     -0.00064775915707
| 17>   C   1.71950353838917      0.48474796831750      0.00039650463350
| 18>   C   -2.01409910612749      1.04896380692966      0.00061990571895
| 19>   C   -1.61628180274550     -1.32486894586471     -0.00084207221412
| 20>   C   -2.50346093349892     -0.25026279308798     -0.00021131814678
| 21>   H   -0.26185913521701      2.28891120618995      0.00146679383123
| 22>   H   0.43892671792030     -1.93733470382279     -0.00114439389832
| 23>   H   1.92010313574198      1.54853896438079      0.00116469460244
| 24>   H   -2.69583866771020      1.88917513731446      0.00111323139944
| 25>   H   -1.99452267977882     -2.33873833253597     -0.00149158926928
| 26>   H   -3.57097965869701     -0.42903155668024     -0.00036738449256
| 27> *
| 28>
| 29>
| 30> %eprnmr nuclei = all {fgrad}
| 31> end
| 32>
| 33> %rel PictureChange true
| 34> end
| 35>
| 36>
| 37>                          ****END OF INPUT****

CARTESIAN COORDINATES (ANGSTROEM)
---------------------------------
  Cl     2.534728   -0.161022   -1.475338
  Cl     2.534743   -0.163167    1.475175
  C      0.248408    0.202336    0.000187
  C     -0.640681    1.274285    0.000819
  C     -0.248200   -1.101823   -0.000648
  C      1.719504    0.484748    0.000397
  C     -2.014099    1.048964    0.000620
  C     -1.616282   -1.324869   -0.000842
  C     -2.503461   -0.250263   -0.000211
  H     -0.261859    2.288911    0.001467
  H      0.438927   -1.937335   -0.001144
  H      1.920103    1.548539    0.001165
  H     -2.695839    1.889175    0.001113
  H     -1.994523   -2.338738   -0.001492
  H     -3.570980   -0.429032   -0.000367

 Total Charge           Charge          ....    0
 Multiplicity           Mult            ....    1
 Number of Electrons    NEL             ....   82
 Basis Dimension        Dim             ....  462

ORBITAL ENERGIES
----------------

  NO   OCC          E(Eh)            E(eV)
   0   2.0000    -101.330059     -2757.3311
   1   2.0000    -101.330055     -2757.3310
   2   2.0000     -10.117948      -275.3234
   3   2.0000     -10.022451      -272.7248
   4   2.0000     -10.011873      -272.4369
   5   2.0000     -10.007216      -272.3102
   6   2.0000     -10.007132      -272.3079
   7   2.0000     -10.006733      -272.2970
   8   2.0000     -10.006224      -272.2832
   9   2.0000      -9.304678      -253.1932
  10   2.0000      -9.304675      -253.1931
  11   2.0000      -7.024585      -191.1487
  12   2.0000      -7.024582      -191.1486
  13   2.0000      -7.012974      -190.8327
  14   2.0000      -7.012969      -190.8326
  15   2.0000      -7.012537      -190.8208
  16   2.0000      -7.012535      -190.8208
  17   2.0000      -0.850423       -23.1412
  18   2.0000      -0.807542       -21.9743
  19   2.0000      -0.764993       -20.8165
  20   2.0000      -0.717907       -19.5353
  21   2.0000      -0.708270       -19.2730
  22   2.0000      -0.622649       -16.9431
  23   2.0000      -0.576827       -15.6963
  24   2.0000      -0.549716       -14.9585
  25   2.0000      -0.491679       -13.3793
  26   2.0000      -0.452219       -12.3055
  27   2.0000      -0.435594       -11.8531
  28   2.0000      -0.413981       -11.2650
  29   2.0000      -0.404192       -10.9986
  30   2.0000      -0.399558       -10.8725
  31   2.0000      -0.392304       -10.6751
  32   2.0000      -0.347455        -9.4547
  33   2.0000      -0.334556        -9.1037
  34   2.0000      -0.322364        -8.7720
  35   2.0000      -0.289776        -7.8852
  36   2.0000      -0.288945        -7.8626
  37   2.0000      -0.270060        -7.3487
  38   2.0000      -0.269766        -7.3407
  39   2.0000      -0.246208        -6.6997
  40   2.0000      -0.238805        -6.4982
  41   0.0000      -0.067485        -1.8364
  42   0.0000      -0.048852        -1.3293
  43   0.0000      -0.034324        -0.9340
  44   0.0000       0.019927         0.5423
  45   0.0000       0.026023         0.7081

MULLIKEN ATOMIC CHARGES
-----------------------
   0 Cl:   -0.027171
   1 Cl:   -0.027156
   2 C :    0.274311
   3 C :   -0.252807
   4 C :   -0.155484
   5 C :   -0.279660
   6 C :   -0.056059
   7 C :   -0.068517
   8 C :   -0.141014
   9 H :    0.089232
  10 H :    0.116828
  11 H :    0.202024
  12 H :    0.118462
  13 H :    0.099327
  14 H :    0.107683
Sum of atomic charges:   -0.0000000

LOEWDIN ATOMIC CHARGES
----------------------
   0 Cl:    0.361221
   1 Cl:    0.361233
   2 C :   -0.212688
   3 C :   -0.099814
   4 C :   -0.099070
   5 C :   -0.764880
   6 C :   -0.128875
   7 C :   -0.122535
   8 C :   -0.125630
   9 H :    0.142358
  10 H :    0.146607
  11 H :    0.119971
  12 H :    0.141290
  13 H :    0.140280
  14 H :    0.140532

  Mayer bond orders larger than 0.100000
B(  0-Cl,  5-C ) :   1.0933 B(  1-Cl,  5-C ) :   1.0933 B(  2-C ,  3-C ) :   1.3505
B(  2-C ,  4-C ) :   1.3086 B(  2-C ,  5-C ) :   1.0583 B(  3-C ,  4-C ) :   0.1114
B(  3-C ,  6-C ) :   1.3467 B(  3-C ,  9-H ) :   1.0095 B(  4-C ,  7-C ) :   1.3701
B(  4-C , 10-H ) :   0.9840 B(  5-C , 11-H ) :   0.9501 B(  6-C ,  8-C ) :   1.3586
B(  6-C , 12-H ) :   0.9969 B(  7-C ,  8-C ) :   1.2701 B(  7-C , 13-H ) :   1.0044
B(  8-C , 14-H ) :   1.0140

FINAL SINGLE POINT ENERGY     -1193.919213320964

DIPOLE MOMENT
-------------

Method             : SCF
Type of density    : Electron Density
Multiplicity       :   1
Irrep              :   0
Energy             : -1193.9192133209639906 Eh
Relativity type    :
Basis              : AO
                                X                 Y                 Z
Electronic contribution:     13.746776855      -1.177982001      -0.000672419
Nuclear contribution   :    -14.650064953       1.511615700       0.000934350
                        -----------------------------------------
Total Dipole Moment    :     -0.903288099       0.333633699       0.000261931
                        -----------------------------------------
Magnitude (a.u.)       :      0.962933489
Magnitude (Debye)      :      2.447582416

Rotational constants in cm-1:             0.067714             0.024191             0.022283
Rotational constants in MHz :          2030.014517           725.234984           668.020482

                             ****ORCA TERMINATED NORMALLY****
TOTAL RUN TIME: 0 days 0 hours 9 minutes 7 seconds 201 msec
