                         Program Version 6.0.1  -  RELEASE   -
|  1> ! B3LYP def2-TZVPP
|  2>
|  3> %MaxCore 10000
|  4>
|  5> %elprop
|  6> Polar 1
|  7> end
|  8>
|  9> * xyz 0 1
| 10>   S   0.62343451524828      0.74851460771596      0.74188708659932
| 11>   S   -0.62343451520743     -0.74851460764339      0.74188708650493
| 12>   Cl  -0.00338636809538      2.07205754892655     -0.69808708654412
| 13>   Cl  0.00338636805452     -2.07205754899912     -0.69808708656014
| 14> *
| 15>
| 16>
| 17>                          ****END OF INPUT****

CARTESIAN COORDINATES (ANGSTROEM)
---------------------------------
  S      0.623435    0.748515    0.741887
  S     -0.623435   -0.748515    0.741887
  Cl    -0.003386    2.072058   -0.698087
  Cl     0.003386   -2.072058   -0.698087

 Total Charge           Charge          ....    0
 Multiplicity           Mult            ....    1
 Number of Electrons    NEL             ....   66
 Basis Dimension        Dim             ....  168

ORBITAL ENERGIES
----------------

  NO   OCC          E(Eh)            E(eV)
   0   2.0000    -101.543390     -2763.1361
   1   2.0000    -101.543390     -2763.1361
   2   2.0000     -88.946405     -2420.3547
   3   2.0000     -88.946395     -2420.3544
   4   2.0000      -9.475324      -257.8367
   5   2.0000      -9.475322      -257.8366
   6   2.0000      -8.017904      -218.1783
   7   2.0000      -8.017782      -218.1749
   8   2.0000      -7.237138      -196.9325
   9   2.0000      -7.237138      -196.9325
  10   2.0000      -7.228372      -196.6940
  11   2.0000      -7.228371      -196.6940
  12   2.0000      -7.227653      -196.6744
  13   2.0000      -7.227652      -196.6744
  14   2.0000      -5.982686      -162.7972
  15   2.0000      -5.982504      -162.7922
  16   2.0000      -5.977595      -162.6586
  17   2.0000      -5.977204      -162.6480
  18   2.0000      -5.971337      -162.4883
  19   2.0000      -5.971336      -162.4883
  20   2.0000      -0.909667       -24.7533
  21   2.0000      -0.865201       -23.5433
  22   2.0000      -0.782056       -21.2808
  23   2.0000      -0.639409       -17.3992
  24   2.0000      -0.480139       -13.0653
  25   2.0000      -0.437712       -11.9107
  26   2.0000      -0.426271       -11.5994
  27   2.0000      -0.371841       -10.1183
  28   2.0000      -0.368487       -10.0270
  29   2.0000      -0.348154        -9.4738
  30   2.0000      -0.319368        -8.6904
  31   2.0000      -0.280767        -7.6400
  32   2.0000      -0.275047        -7.4844
  33   0.0000      -0.089967        -2.4481
  34   0.0000      -0.087454        -2.3797
  35   0.0000      -0.032530        -0.8852
  36   0.0000       0.154889         4.2147
  37   0.0000       0.168475         4.5844

MULLIKEN ATOMIC CHARGES
-----------------------
   0 S :    0.131489
   1 S :    0.131489
   2 Cl:   -0.131489
   3 Cl:   -0.131489
Sum of atomic charges:   -0.0000000

LOEWDIN ATOMIC CHARGES
----------------------
   0 S :    0.014709
   1 S :    0.014709
   2 Cl:   -0.014709
   3 Cl:   -0.014709

  Mayer bond orders larger than 0.100000
B(  0-S ,  1-S ) :   1.5038 B(  0-S ,  2-Cl) :   1.0282 B(  0-S ,  3-Cl) :   0.1056
B(  1-S ,  2-Cl) :   0.1056 B(  1-S ,  3-Cl) :   1.0282

FINAL SINGLE POINT ENERGY     -1716.649486186342

DIPOLE MOMENT
-------------

Method             : SCF
Type of density    : Electron Density
Multiplicity       :   1
Irrep              :   0
Energy             : -1716.6494861863418464 Eh
Relativity type    :
Basis              : AO
                                X                 Y                 Z
Electronic contribution:      0.000000296      -0.000000431      -1.427176919
Nuclear contribution   :      0.000000000       0.000000000       1.791828950
                        -----------------------------------------
Total Dipole Moment    :      0.000000296      -0.000000431       0.364652031
                        -----------------------------------------
Magnitude (a.u.)       :      0.364652031
Magnitude (Debye)      :      0.926871804

Rotational constants in cm-1:             0.183197             0.046150             0.040828
Rotational constants in MHz :          5492.103378          1383.552987          1223.994398

                             ****ORCA TERMINATED NORMALLY****
TOTAL RUN TIME: 0 days 0 hours 0 minutes 13 seconds 939 msec
