                         Program Version 6.0.1  -  RELEASE   -
|  1> ! RKS NORI TPSS DKH2 DKH-def2-TZVP Decontract VERYTIGHTSCF SlowConv
|  2>
|  3> %MaxCore 100000
|  4>
|  5> %basis newgto S "old-DKH-TZVP" end
|  6> end
|  7>
|  8> %basis newgto Cl "old-DKH-TZVP" end
|  9> end
| 10>
| 11> %method
| 12>   SpecialGridAtoms 17
| 13>   SpecialGridAtoms 16
| 14>   SpecialGridIntAcc 7
| 15> end
| 16>
| 17> * xyz 0 1
| 18>   S   0.62343451524828      0.74851460771596      0.74188708659932
| 19>   S   -0.62343451520743     -0.74851460764339      0.74188708650493
| 20>   Cl  -0.00338636809538      2.07205754892655     -0.69808708654412
| 21>   Cl  0.00338636805452     -2.07205754899912     -0.69808708656014
| 22> *
| 23>
| 24> %eprnmr nuclei = all {fgrad}
| 25> end
| 26>
| 27> %rel PictureChange true
| 28> endd                         ****END OF INPUT****

CARTESIAN COORDINATES (ANGSTROEM)
---------------------------------
  S      0.623435    0.748515    0.741887
  S     -0.623435   -0.748515    0.741887
  Cl    -0.003386    2.072058   -0.698087
  Cl     0.003386   -2.072058   -0.698087

 Total Charge           Charge          ....    0
 Multiplicity           Mult            ....    1
 Number of Electrons    NEL             ....   66
 Basis Dimension        Dim             ....  184

ORBITAL ENERGIES
----------------

  NO   OCC          E(Eh)            E(eV)
   0   2.0000    -101.352331     -2757.9371
   1   2.0000    -101.352331     -2757.9371
   2   2.0000     -88.708711     -2413.8868
   3   2.0000     -88.708707     -2413.8866
   4   2.0000      -9.326828      -253.7959
   5   2.0000      -9.326828      -253.7959
   6   2.0000      -7.875527      -214.3040
   7   2.0000      -7.875435      -214.3015
   8   2.0000      -7.047269      -191.7659
   9   2.0000      -7.047269      -191.7659
  10   2.0000      -7.035172      -191.4368
  11   2.0000      -7.035172      -191.4368
  12   2.0000      -7.034239      -191.4114
  13   2.0000      -7.034238      -191.4114
  14   2.0000      -5.812158      -158.1569
  15   2.0000      -5.811953      -158.1513
  16   2.0000      -5.806855      -158.0126
  17   2.0000      -5.806511      -158.0032
  18   2.0000      -5.797604      -157.7608
  19   2.0000      -5.797602      -157.7608
  20   2.0000      -0.863183       -23.4884
  21   2.0000      -0.817626       -22.2487
  22   2.0000      -0.739306       -20.1175
  23   2.0000      -0.602946       -16.4070
  24   2.0000      -0.452925       -12.3247
  25   2.0000      -0.410127       -11.1601
  26   2.0000      -0.397571       -10.8185
  27   2.0000      -0.340796        -9.2735
  28   2.0000      -0.335714        -9.1352
  29   2.0000      -0.315101        -8.5743
  30   2.0000      -0.289627        -7.8812
  31   2.0000      -0.255249        -6.9457
  32   2.0000      -0.250313        -6.8114
  33   0.0000      -0.120576        -3.2810
  34   0.0000      -0.117429        -3.1954
  35   0.0000      -0.060592        -1.6488
  36   0.0000       0.164920         4.4877
  37   0.0000       0.207204         5.6383

MULLIKEN ATOMIC CHARGES
-----------------------
   0 S :    0.128011
   1 S :    0.128011
   2 Cl:   -0.128011
   3 Cl:   -0.128011
Sum of atomic charges:    0.0000000

LOEWDIN ATOMIC CHARGES
----------------------
   0 S :    0.105189
   1 S :    0.105189
   2 Cl:   -0.105189
   3 Cl:   -0.105189

  Mayer bond orders larger than 0.100000
B(  0-S ,  1-S ) :   1.3509 B(  0-S ,  2-Cl) :   0.8565 B(  0-S ,  3-Cl) :   0.1301
B(  1-S ,  2-Cl) :   0.1301 B(  1-S ,  3-Cl) :   0.8565

FINAL SINGLE POINT ENERGY     -1721.924452278802

DIPOLE MOMENT
-------------

Method             : SCF
Type of density    : Electron Density
Multiplicity       :   1
Irrep              :   0
Energy             : -1721.9244522788019367 Eh
Relativity type    :
Basis              : AO
                                X                 Y                 Z
Electronic contribution:     -0.000000000      -0.000000000      -1.366931545
Nuclear contribution   :      0.000000000       0.000000000       1.791828950
                        -----------------------------------------
Total Dipole Moment    :     -0.000000000       0.000000000       0.424897405
                        -----------------------------------------
Magnitude (a.u.)       :      0.424897405
Magnitude (Debye)      :      1.080003375

Rotational constants in cm-1:             0.183197             0.046150             0.040828
Rotational constants in MHz :          5492.103378          1383.552987          1223.994398

                             ****ORCA TERMINATED NORMALLY****
TOTAL RUN TIME: 0 days 0 hours 0 minutes 24 seconds 401 msec
