                         Program Version 4.0.1.2 - RELEASE -
|  1> # avogadro generated ORCA input file
|  2> # Basic Mode
|  3> #
|  4> ! B3LYP TIGHTSCF TIGHTOPT OPT def2-TZVPP
|  5>
|  6> %MaxCore 100000
|  7>
|  8> * xyz 0 1
|  9>    S        0.61200        0.74680        0.74340
| 10>    S       -0.61200       -0.74680        0.74340
| 11>   Cl        0.00000        2.07890       -0.69960
| 12>   Cl        0.00000       -2.07890       -0.69960
| 13> *
| 14>
| 15>
| 16>
| 17>                          ****END OF INPUT****
 Total Charge           Charge          ....    0
 Multiplicity           Mult            ....    1
 Number of Electrons    NEL             ....   66
FINAL SINGLE POINT ENERGY     -1716.649232575579
FINAL SINGLE POINT ENERGY     -1716.648275851108
FINAL SINGLE POINT ENERGY     -1716.649606671893
FINAL SINGLE POINT ENERGY     -1716.650537735738
FINAL SINGLE POINT ENERGY     -1716.650544116718
FINAL SINGLE POINT ENERGY     -1716.650545198648
FINAL SINGLE POINT ENERGY     -1716.650546016350
                    ***********************HURRAY********************

CARTESIAN COORDINATES (ANGSTROEM)
---------------------------------
  S      0.616744    0.755534    0.740143
  S     -0.616744   -0.755534    0.740143
  Cl    -0.000415    2.156573   -0.696343
  Cl     0.000415   -2.156573   -0.696343

 Multiplicity           Mult            ....    1
 Number of Electrons    NEL             ....   66
 Basis Dimension        Dim             ....  168

ORBITAL ENERGIES
----------------

  NO   OCC          E(Eh)            E(eV)
   0   2.0000    -101.542609     -2763.1149
   1   2.0000    -101.542609     -2763.1149
   2   2.0000     -88.953021     -2420.5348
   3   2.0000     -88.953010     -2420.5345
   4   2.0000      -9.473858      -257.7968
   5   2.0000      -9.473856      -257.7967
   6   2.0000      -8.023620      -218.3338
   7   2.0000      -8.023501      -218.3306
   8   2.0000      -7.235731      -196.8943
   9   2.0000      -7.235731      -196.8943
  10   2.0000      -7.226893      -196.6538
  11   2.0000      -7.226892      -196.6537
  12   2.0000      -7.226241      -196.6360
  13   2.0000      -7.226240      -196.6360
  14   2.0000      -5.987936      -162.9400
  15   2.0000      -5.987756      -162.9351
  16   2.0000      -5.983653      -162.8235
  17   2.0000      -5.983272      -162.8131
  18   2.0000      -5.977255      -162.6494
  19   2.0000      -5.977254      -162.6493
  20   2.0000      -0.901536       -24.5321
  21   2.0000      -0.856528       -23.3073
  22   2.0000      -0.786071       -21.3901
  23   2.0000      -0.642540       -17.4844
  24   2.0000      -0.477566       -12.9952
  25   2.0000      -0.435006       -11.8371
  26   2.0000      -0.422585       -11.4991
  27   2.0000      -0.367748       -10.0069
  28   2.0000      -0.364443        -9.9170
  29   2.0000      -0.345810        -9.4100
  30   2.0000      -0.320697        -8.7266
  31   2.0000      -0.285226        -7.7614
  32   2.0000      -0.280600        -7.6355
  33   0.0000      -0.104337        -2.8391
  34   0.0000      -0.098833        -2.6894
  35   0.0000      -0.034503        -0.9389
  36   0.0000       0.150543         4.0965
  37   0.0000       0.168927         4.5967

MULLIKEN ATOMIC CHARGES
-----------------------
   0 S :    0.143535
   1 S :    0.143535
   2 Cl:   -0.143535
   3 Cl:   -0.143535
Sum of atomic charges:   -0.0000000

LOEWDIN ATOMIC CHARGES
----------------------
   0 S :    0.037709
   1 S :    0.037709
   2 Cl:   -0.037709
   3 Cl:   -0.037709

  Mayer bond orders larger than 0.1
B(  0-S ,  1-S ) :   1.5417 B(  0-S ,  2-Cl) :   0.9974 B(  0-S ,  3-Cl) :   0.1192
B(  1-S ,  2-Cl) :   0.1192 B(  1-S ,  3-Cl) :   0.9974

FINAL SINGLE POINT ENERGY     -1716.650546056795

DIPOLE MOMENT
-------------
                                X             Y             Z
Electronic contribution:      0.00000       0.00000      -1.35040
Nuclear contribution   :     -0.00000      -0.00000       1.78749
                        -----------------------------------------
Total Dipole Moment    :     -0.00000       0.00000       0.43709
                        -----------------------------------------
Magnitude (a.u.)       :      0.43709
Magnitude (Debye)      :      1.11099

                             ****ORCA TERMINATED NORMALLY****
TOTAL RUN TIME: 0 days 0 hours 7 minutes 28 seconds 260 msec
